<?xml version="1.0" encoding="UTF-8"?>

<!-- generated on 2026-04-06T20:03:27.197779+02:00 by Eclipse SUMO sumo 1.25.0
<sumoConfiguration xmlns:xsi="http://www.w3.org/2001/XMLSchema-instance" xsi:noNamespaceSchemaLocation="http://sumo.dlr.de/xsd/sumoConfiguration.xsd">

    <input>
        <net-file value="sumo_benchmark/generated/benchmark.net.xml"/>
        <route-files value="sumo_benchmark/generated/benchmark.rou.xml"/>
    </input>

    <output>
        <summary-output value="sumo_benchmark/generated/summary.xml"/>
        <tripinfo-output value="sumo_benchmark/generated/tripinfo.xml"/>
    </output>

    <time>
        <begin value="0"/>
        <end value="3600"/>
        <step-length value="1"/>
    </time>

    <processing>
        <ignore-route-errors value="false"/>
        <time-to-teleport value="-1"/>
    </processing>

    <report>
        <verbose value="false"/>
        <no-step-log value="true"/>
    </report>

</sumoConfiguration>
-->

<tripinfos xmlns:xsi="http://www.w3.org/2001/XMLSchema-instance" xsi:noNamespaceSchemaLocation="http://sumo.dlr.de/xsd/tripinfo_file.xsd">
    <tripinfo id="warmup_north_to_east.0" depart="0.00" departLane="N_SPINE_to_J03_1" departPos="5.10" departSpeed="15.16" departDelay="0.00" arrival="109.00" arrivalLane="J10_to_E_MAIN_0" arrivalPos="189.09" arrivalSpeed="16.85" duration="109.00" routeLength="828.08" waitingTime="42.00" waitingCount="1" stopTime="0.00" timeLoss="56.85" rerouteNo="0" devices="tripinfo_warmup_north_to_east.0" vType="DEFAULT_VEHTYPE" speedFactor="1.01" vaporized=""/>
    <tripinfo id="warmup_north_to_east.1" depart="9.00" departLane="N_SPINE_to_J03_1" departPos="5.10" departSpeed="15.69" departDelay="0.63" arrival="109.00" arrivalLane="J10_to_E_MAIN_1" arrivalPos="189.09" arrivalSpeed="16.27" duration="100.00" routeLength="828.08" waitingTime="35.00" waitingCount="1" stopTime="0.00" timeLoss="49.37" rerouteNo="0" devices="tripinfo_warmup_north_to_east.1" vType="DEFAULT_VEHTYPE" speedFactor="1.05" vaporized=""/>
    <tripinfo id="warmup_main_through.0" depart="0.00" departLane="W_MAIN_to_J06_0" departPos="5.10" departSpeed="17.70" departDelay="0.00" arrival="110.00" arrivalLane="J10_to_E_MAIN_1" arrivalPos="189.09" arrivalSpeed="16.73" duration="110.00" routeLength="986.27" waitingTime="34.00" waitingCount="2" stopTime="0.00" timeLoss="53.55" rerouteNo="0" devices="tripinfo_warmup_main_through.0" vType="DEFAULT_VEHTYPE" speedFactor="1.06" vaporized=""/>
    <tripinfo id="warmup_wlower_to_elower.0" depart="0.00" departLane="W_LOWER_to_J11_0" departPos="5.10" departSpeed="14.08" departDelay="0.00" arrival="116.00" arrivalLane="J14_to_E_LOWER_0" arrivalPos="298.50" arrivalSpeed="13.16" duration="116.00" routeLength="916.32" waitingTime="32.00" waitingCount="2" stopTime="0.00" timeLoss="50.53" rerouteNo="0" devices="tripinfo_warmup_wlower_to_elower.0" vType="DEFAULT_VEHTYPE" speedFactor="1.08" vaporized=""/>
    <tripinfo id="warmup_wlower_to_elower.1" depart="40.00" departLane="W_LOWER_to_J11_0" departPos="5.10" departSpeed="13.24" departDelay="0.00" arrival="119.00" arrivalLane="J14_to_E_LOWER_0" arrivalPos="298.50" arrivalSpeed="12.21" duration="79.00" routeLength="916.32" waitingTime="2.00" waitingCount="1" stopTime="0.00" timeLoss="9.37" rerouteNo="0" devices="tripinfo_warmup_wlower_to_elower.1" vType="DEFAULT_VEHTYPE" speedFactor="1.02" vaporized=""/>
    <tripinfo id="warmup_north_to_east.5" depart="42.00" departLane="N_SPINE_to_J03_1" departPos="5.10" departSpeed="15.15" departDelay="0.14" arrival="124.00" arrivalLane="J10_to_E_MAIN_2" arrivalPos="189.09" arrivalSpeed="16.76" duration="82.00" routeLength="828.08" waitingTime="14.00" waitingCount="1" stopTime="0.00" timeLoss="29.14" rerouteNo="0" devices="tripinfo_warmup_north_to_east.5" vType="DEFAULT_VEHTYPE" speedFactor="1.01" vaporized=""/>
    <tripinfo id="warmup_north_to_east.2" depart="17.00" departLane="N_SPINE_to_J03_1" departPos="5.10" departSpeed="12.85" departDelay="0.26" arrival="127.00" arrivalLane="J10_to_E_MAIN_1" arrivalPos="189.09" arrivalSpeed="13.97" duration="110.00" routeLength="828.08" waitingTime="37.00" waitingCount="1" stopTime="0.00" timeLoss="47.64" rerouteNo="0" devices="tripinfo_warmup_north_to_east.2" vType="DEFAULT_VEHTYPE" speedFactor="0.86" vaporized=""/>
    <tripinfo id="warmup_main_to_south.0" depart="1.00" departLane="W_MAIN_to_J06_0" departPos="5.10" departSpeed="14.58" departDelay="1.00" arrival="159.00" arrivalLane="J18_to_S_SPINE_0" arrivalPos="156.89" arrivalSpeed="12.80" duration="158.00" routeLength="922.29" waitingTime="78.00" waitingCount="2" stopTime="0.00" timeLoss="94.67" rerouteNo="0" devices="tripinfo_warmup_main_to_south.0" vType="DEFAULT_VEHTYPE" speedFactor="0.94" vaporized=""/>
    <tripinfo id="warmup_main_to_south.2" depart="40.00" departLane="W_MAIN_to_J06_0" departPos="5.10" departSpeed="19.34" departDelay="0.00" arrival="167.00" arrivalLane="J18_to_S_SPINE_1" arrivalPos="156.89" arrivalSpeed="16.25" duration="127.00" routeLength="922.29" waitingTime="43.00" waitingCount="2" stopTime="0.00" timeLoss="75.86" rerouteNo="0" devices="tripinfo_warmup_main_to_south.2" vType="DEFAULT_VEHTYPE" speedFactor="1.16" vaporized=""/>
    <tripinfo id="warmup_main_to_south.1" depart="20.00" departLane="W_MAIN_to_J06_0" departPos="5.10" departSpeed="15.31" departDelay="0.00" arrival="169.00" arrivalLane="J18_to_S_SPINE_0" arrivalPos="156.89" arrivalSpeed="14.55" duration="149.00" routeLength="922.29" waitingTime="65.00" waitingCount="3" stopTime="0.00" timeLoss="90.80" rerouteNo="0" devices="tripinfo_warmup_main_to_south.1" vType="DEFAULT_VEHTYPE" speedFactor="1.03" vaporized=""/>
    <tripinfo id="warmup_main_to_south.4" depart="80.00" departLane="W_MAIN_to_J06_0" departPos="5.10" departSpeed="19.70" departDelay="0.00" arrival="206.00" arrivalLane="J18_to_S_SPINE_0" arrivalPos="156.89" arrivalSpeed="16.81" duration="126.00" routeLength="922.29" waitingTime="49.00" waitingCount="3" stopTime="0.00" timeLoss="75.52" rerouteNo="0" devices="tripinfo_warmup_main_to_south.4" vType="DEFAULT_VEHTYPE" speedFactor="1.18" vaporized=""/>
    <tripinfo id="warmup_wlower_to_elower.2" depart="80.00" departLane="W_LOWER_to_J11_0" departPos="5.10" departSpeed="14.33" departDelay="0.00" arrival="206.00" arrivalLane="J14_to_E_LOWER_0" arrivalPos="298.50" arrivalSpeed="14.21" duration="126.00" routeLength="916.32" waitingTime="43.00" waitingCount="2" stopTime="0.00" timeLoss="61.36" rerouteNo="0" devices="tripinfo_warmup_wlower_to_elower.2" vType="DEFAULT_VEHTYPE" speedFactor="1.10" vaporized=""/>
    <tripinfo id="warmup_main_to_south.3" depart="60.00" departLane="W_MAIN_to_J06_0" departPos="5.10" departSpeed="15.55" departDelay="0.00" arrival="207.00" arrivalLane="J18_to_S_SPINE_0" arrivalPos="156.89" arrivalSpeed="13.85" duration="147.00" routeLength="922.29" waitingTime="60.00" waitingCount="3" stopTime="0.00" timeLoss="83.47" rerouteNo="0" devices="tripinfo_warmup_main_to_south.3" vType="DEFAULT_VEHTYPE" speedFactor="0.93" vaporized=""/>
    <tripinfo id="warmup_main_through.5" depart="24.00" departLane="W_MAIN_to_J06_2" departPos="5.10" departSpeed="17.49" departDelay="0.31" arrival="208.00" arrivalLane="J10_to_E_MAIN_1" arrivalPos="189.09" arrivalSpeed="17.15" duration="184.00" routeLength="986.27" waitingTime="94.00" waitingCount="4" stopTime="0.00" timeLoss="126.77" rerouteNo="0" devices="tripinfo_warmup_main_through.5" vType="DEFAULT_VEHTYPE" speedFactor="1.05" vaporized=""/>
    <tripinfo id="warmup_north_to_east.3" depart="26.00" departLane="N_SPINE_to_J03_1" departPos="5.10" departSpeed="14.87" departDelay="0.88" arrival="208.00" arrivalLane="J10_to_E_MAIN_0" arrivalPos="189.09" arrivalSpeed="16.48" duration="182.00" routeLength="828.08" waitingTime="99.00" waitingCount="5" stopTime="0.00" timeLoss="128.76" rerouteNo="0" devices="tripinfo_warmup_north_to_east.3" vType="DEFAULT_VEHTYPE" speedFactor="0.99" vaporized=""/>
    <tripinfo id="warmup_main_through.4" depart="19.00" departLane="W_MAIN_to_J06_0" departPos="5.10" departSpeed="18.21" departDelay="0.05" arrival="209.00" arrivalLane="J10_to_E_MAIN_2" arrivalPos="189.09" arrivalSpeed="17.09" duration="190.00" routeLength="986.27" waitingTime="99.00" waitingCount="4" stopTime="0.00" timeLoss="135.58" rerouteNo="0" devices="tripinfo_warmup_main_through.4" vType="DEFAULT_VEHTYPE" speedFactor="1.09" vaporized=""/>
    <tripinfo id="warmup_main_through.1" depart="5.00" departLane="W_MAIN_to_J06_1" departPos="5.10" departSpeed="13.88" departDelay="0.26" arrival="210.00" arrivalLane="J10_to_E_MAIN_0" arrivalPos="189.09" arrivalSpeed="12.84" duration="205.00" routeLength="986.27" waitingTime="114.00" waitingCount="3" stopTime="0.00" timeLoss="133.52" rerouteNo="0" devices="tripinfo_warmup_main_through.1" vType="DEFAULT_VEHTYPE" speedFactor="0.83" vaporized=""/>
    <tripinfo id="warmup_main_through.3" depart="15.00" departLane="W_MAIN_to_J06_1" departPos="5.10" departSpeed="15.66" departDelay="0.79" arrival="211.00" arrivalLane="J10_to_E_MAIN_1" arrivalPos="189.09" arrivalSpeed="14.93" duration="196.00" routeLength="986.27" waitingTime="104.00" waitingCount="4" stopTime="0.00" timeLoss="132.27" rerouteNo="0" devices="tripinfo_warmup_main_through.3" vType="DEFAULT_VEHTYPE" speedFactor="0.94" vaporized=""/>
    <tripinfo id="warmup_main_through.2" depart="10.00" departLane="W_MAIN_to_J06_2" departPos="5.10" departSpeed="14.80" departDelay="0.53" arrival="212.00" arrivalLane="J10_to_E_MAIN_0" arrivalPos="189.09" arrivalSpeed="14.13" duration="202.00" routeLength="986.27" waitingTime="101.00" waitingCount="4" stopTime="0.00" timeLoss="134.59" rerouteNo="0" devices="tripinfo_warmup_main_through.2" vType="DEFAULT_VEHTYPE" speedFactor="0.89" vaporized=""/>
    <tripinfo id="warmup_main_through.8" depart="38.00" departLane="W_MAIN_to_J06_2" departPos="5.10" departSpeed="15.63" departDelay="0.10" arrival="212.00" arrivalLane="J10_to_E_MAIN_2" arrivalPos="189.09" arrivalSpeed="15.16" duration="174.00" routeLength="986.27" waitingTime="80.00" waitingCount="3" stopTime="0.00" timeLoss="110.77" rerouteNo="0" devices="tripinfo_warmup_main_through.8" vType="DEFAULT_VEHTYPE" speedFactor="0.94" vaporized=""/>
    <tripinfo id="warmup_main_through.6" depart="29.00" departLane="W_MAIN_to_J06_1" departPos="5.10" departSpeed="15.48" departDelay="0.58" arrival="213.00" arrivalLane="J10_to_E_MAIN_1" arrivalPos="189.09" arrivalSpeed="15.26" duration="184.00" routeLength="986.27" waitingTime="86.00" waitingCount="4" stopTime="0.00" timeLoss="120.20" rerouteNo="0" devices="tripinfo_warmup_main_through.6" vType="DEFAULT_VEHTYPE" speedFactor="0.93" vaporized=""/>
    <tripinfo id="warmup_main_through.7" depart="34.00" departLane="W_MAIN_to_J06_0" departPos="5.10" departSpeed="14.67" departDelay="0.84" arrival="214.00" arrivalLane="J10_to_E_MAIN_0" arrivalPos="189.09" arrivalSpeed="14.56" duration="180.00" routeLength="986.27" waitingTime="78.00" waitingCount="4" stopTime="0.00" timeLoss="111.79" rerouteNo="0" devices="tripinfo_warmup_main_through.7" vType="DEFAULT_VEHTYPE" speedFactor="0.88" vaporized=""/>
    <tripinfo id="warmup_main_through.9" depart="43.00" departLane="W_MAIN_to_J06_1" departPos="5.10" departSpeed="16.28" departDelay="0.37" arrival="215.00" arrivalLane="J10_to_E_MAIN_1" arrivalPos="189.09" arrivalSpeed="15.27" duration="172.00" routeLength="986.27" waitingTime="80.00" waitingCount="3" stopTime="0.00" timeLoss="111.07" rerouteNo="0" devices="tripinfo_warmup_main_through.9" vType="DEFAULT_VEHTYPE" speedFactor="0.97" vaporized=""/>
    <tripinfo id="warmup_main_through.10" depart="48.00" departLane="W_MAIN_to_J06_2" departPos="5.10" departSpeed="14.86" departDelay="0.63" arrival="215.00" arrivalLane="J10_to_E_MAIN_2" arrivalPos="189.09" arrivalSpeed="14.83" duration="167.00" routeLength="986.27" waitingTime="70.00" waitingCount="3" stopTime="0.00" timeLoss="99.84" rerouteNo="0" devices="tripinfo_warmup_main_through.10" vType="DEFAULT_VEHTYPE" speedFactor="0.89" vaporized=""/>
    <tripinfo id="warmup_main_through.14" depart="67.00" departLane="W_MAIN_to_J06_1" departPos="5.10" departSpeed="19.28" departDelay="0.68" arrival="215.00" arrivalLane="J10_to_E_MAIN_0" arrivalPos="189.09" arrivalSpeed="16.03" duration="148.00" routeLength="986.27" waitingTime="60.00" waitingCount="3" stopTime="0.00" timeLoss="96.52" rerouteNo="0" devices="tripinfo_warmup_main_through.14" vType="DEFAULT_VEHTYPE" speedFactor="1.15" vaporized=""/>
    <tripinfo id="warmup_main_through.12" depart="57.00" departLane="W_MAIN_to_J06_2" departPos="5.10" departSpeed="15.84" departDelay="0.16" arrival="216.00" arrivalLane="J10_to_E_MAIN_2" arrivalPos="189.09" arrivalSpeed="15.42" duration="159.00" routeLength="986.27" waitingTime="64.00" waitingCount="3" stopTime="0.00" timeLoss="96.63" rerouteNo="0" devices="tripinfo_warmup_main_through.12" vType="DEFAULT_VEHTYPE" speedFactor="0.95" vaporized=""/>
    <tripinfo id="warmup_main_through.11" depart="53.00" departLane="W_MAIN_to_J06_0" departPos="5.10" departSpeed="15.32" departDelay="0.89" arrival="217.00" arrivalLane="J10_to_E_MAIN_1" arrivalPos="189.09" arrivalSpeed="14.45" duration="164.00" routeLength="986.27" waitingTime="69.00" waitingCount="3" stopTime="0.00" timeLoss="99.52" rerouteNo="0" devices="tripinfo_warmup_main_through.11" vType="DEFAULT_VEHTYPE" speedFactor="0.92" vaporized=""/>
    <tripinfo id="warmup_main_through.15" depart="72.00" departLane="W_MAIN_to_J06_1" departPos="5.10" departSpeed="19.57" departDelay="0.94" arrival="217.00" arrivalLane="J10_to_E_MAIN_0" arrivalPos="189.09" arrivalSpeed="16.96" duration="145.00" routeLength="986.27" waitingTime="52.00" waitingCount="4" stopTime="0.00" timeLoss="93.99" rerouteNo="0" devices="tripinfo_warmup_main_through.15" vType="DEFAULT_VEHTYPE" speedFactor="1.17" vaporized=""/>
    <tripinfo id="warmup_north_to_east.7" depart="59.00" departLane="N_SPINE_to_J03_1" departPos="5.10" departSpeed="16.98" departDelay="0.40" arrival="218.00" arrivalLane="J10_to_E_MAIN_0" arrivalPos="189.09" arrivalSpeed="16.85" duration="159.00" routeLength="828.08" waitingTime="54.00" waitingCount="4" stopTime="0.00" timeLoss="112.38" rerouteNo="0" devices="tripinfo_warmup_north_to_east.7" vType="DEFAULT_VEHTYPE" speedFactor="1.13" vaporized=""/>
    <tripinfo id="warmup_main_through.13" depart="62.00" departLane="W_MAIN_to_J06_1" departPos="5.10" departSpeed="19.68" departDelay="0.42" arrival="218.00" arrivalLane="J10_to_E_MAIN_2" arrivalPos="189.09" arrivalSpeed="18.74" duration="156.00" routeLength="986.27" waitingTime="69.00" waitingCount="3" stopTime="0.00" timeLoss="105.27" rerouteNo="0" devices="tripinfo_warmup_main_through.13" vType="DEFAULT_VEHTYPE" speedFactor="1.18" vaporized=""/>
    <tripinfo id="warmup_north_to_east.4" depart="34.00" departLane="N_SPINE_to_J03_1" departPos="5.10" departSpeed="14.12" departDelay="0.51" arrival="219.00" arrivalLane="J10_to_E_MAIN_1" arrivalPos="189.09" arrivalSpeed="14.91" duration="185.00" routeLength="828.08" waitingTime="83.00" waitingCount="5" stopTime="0.00" timeLoss="128.87" rerouteNo="0" devices="tripinfo_warmup_north_to_east.4" vType="DEFAULT_VEHTYPE" speedFactor="0.94" vaporized=""/>
    <tripinfo id="warmup_north_to_east.6" depart="51.00" departLane="N_SPINE_to_J03_1" departPos="5.10" departSpeed="13.09" departDelay="0.77" arrival="220.00" arrivalLane="J10_to_E_MAIN_2" arrivalPos="189.09" arrivalSpeed="14.49" duration="169.00" routeLength="828.08" waitingTime="65.00" waitingCount="5" stopTime="0.00" timeLoss="108.76" rerouteNo="0" devices="tripinfo_warmup_north_to_east.6" vType="DEFAULT_VEHTYPE" speedFactor="0.87" vaporized=""/>
    <tripinfo id="warmup_north_to_east.8" depart="67.00" departLane="N_SPINE_to_J03_1" departPos="5.10" departSpeed="15.08" departDelay="0.02" arrival="220.00" arrivalLane="J10_to_E_MAIN_0" arrivalPos="189.09" arrivalSpeed="16.54" duration="153.00" routeLength="828.08" waitingTime="50.00" waitingCount="5" stopTime="0.00" timeLoss="100.34" rerouteNo="0" devices="tripinfo_warmup_north_to_east.8" vType="DEFAULT_VEHTYPE" speedFactor="1.01" vaporized=""/>
    <tripinfo id="warmup_north_to_east.9" depart="76.00" departLane="N_SPINE_to_J03_1" departPos="5.10" departSpeed="15.30" departDelay="0.65" arrival="221.00" arrivalLane="J10_to_E_MAIN_1" arrivalPos="189.09" arrivalSpeed="16.76" duration="145.00" routeLength="828.08" waitingTime="50.00" waitingCount="3" stopTime="0.00" timeLoss="92.65" rerouteNo="0" devices="tripinfo_warmup_north_to_east.9" vType="DEFAULT_VEHTYPE" speedFactor="1.02" vaporized=""/>
    <tripinfo id="warmup_wtop_to_east.0" depart="0.00" departLane="W_TOP_to_J02_0" departPos="5.10" departSpeed="11.33" departDelay="0.00" arrival="222.00" arrivalLane="J10_to_E_MAIN_2" arrivalPos="189.09" arrivalSpeed="16.38" duration="222.00" routeLength="1105.09" waitingTime="103.00" waitingCount="4" stopTime="0.00" timeLoss="145.52" rerouteNo="0" devices="tripinfo_warmup_wtop_to_east.0" vType="DEFAULT_VEHTYPE" speedFactor="1.03" vaporized=""/>
    <tripinfo id="warmup_main_through.16" depart="76.00" departLane="W_MAIN_to_J06_1" departPos="5.10" departSpeed="16.25" departDelay="0.21" arrival="222.00" arrivalLane="J10_to_E_MAIN_0" arrivalPos="189.09" arrivalSpeed="15.42" duration="146.00" routeLength="986.27" waitingTime="46.00" waitingCount="4" stopTime="0.00" timeLoss="84.72" rerouteNo="0" devices="tripinfo_warmup_main_through.16" vType="DEFAULT_VEHTYPE" speedFactor="0.97" vaporized=""/>
    <tripinfo id="warmup_main_through.18" depart="86.00" departLane="W_MAIN_to_J06_1" departPos="5.10" departSpeed="15.98" departDelay="0.73" arrival="222.00" arrivalLane="J10_to_E_MAIN_1" arrivalPos="189.09" arrivalSpeed="15.33" duration="136.00" routeLength="986.27" waitingTime="40.00" waitingCount="3" stopTime="0.00" timeLoss="74.18" rerouteNo="0" devices="tripinfo_warmup_main_through.18" vType="DEFAULT_VEHTYPE" speedFactor="0.96" vaporized=""/>
    <tripinfo id="warmup_wtop_to_east.4" depart="96.00" departLane="W_TOP_to_J02_0" departPos="5.10" departSpeed="11.97" departDelay="0.00" arrival="223.00" arrivalLane="J10_to_E_MAIN_0" arrivalPos="189.09" arrivalSpeed="17.43" duration="127.00" routeLength="1105.09" waitingTime="9.00" waitingCount="2" stopTime="0.00" timeLoss="54.94" rerouteNo="0" devices="tripinfo_warmup_wtop_to_east.4" vType="DEFAULT_VEHTYPE" speedFactor="1.09" vaporized=""/>
    <tripinfo id="warmup_wtop_to_east.1" depart="24.00" departLane="W_TOP_to_J02_0" departPos="5.10" departSpeed="12.35" departDelay="0.00" arrival="224.00" arrivalLane="J10_to_E_MAIN_1" arrivalPos="189.09" arrivalSpeed="18.68" duration="200.00" routeLength="1105.09" waitingTime="78.00" waitingCount="4" stopTime="0.00" timeLoss="129.54" rerouteNo="0" devices="tripinfo_warmup_wtop_to_east.1" vType="DEFAULT_VEHTYPE" speedFactor="1.12" vaporized=""/>
    <tripinfo id="warmup_wtop_to_east.2" depart="48.00" departLane="W_TOP_to_J02_0" departPos="5.10" departSpeed="9.08" departDelay="0.00" arrival="225.00" arrivalLane="J10_to_E_MAIN_2" arrivalPos="189.09" arrivalSpeed="13.20" duration="177.00" routeLength="1105.09" waitingTime="47.00" waitingCount="3" stopTime="0.00" timeLoss="81.21" rerouteNo="0" devices="tripinfo_warmup_wtop_to_east.2" vType="DEFAULT_VEHTYPE" speedFactor="0.83" vaporized=""/>
    <tripinfo id="warmup_wtop_to_east.3" depart="72.00" departLane="W_TOP_to_J02_0" departPos="5.10" departSpeed="10.94" departDelay="0.00" arrival="226.00" arrivalLane="J10_to_E_MAIN_1" arrivalPos="189.09" arrivalSpeed="16.00" duration="154.00" routeLength="1105.09" waitingTime="25.00" waitingCount="4" stopTime="0.00" timeLoss="74.49" rerouteNo="0" devices="tripinfo_warmup_wtop_to_east.3" vType="DEFAULT_VEHTYPE" speedFactor="0.99" vaporized=""/>
    <tripinfo id="warmup_north_to_east.10" depart="84.00" departLane="N_SPINE_to_J03_1" departPos="5.10" departSpeed="15.46" departDelay="0.28" arrival="226.00" arrivalLane="J10_to_E_MAIN_2" arrivalPos="189.09" arrivalSpeed="14.72" duration="142.00" routeLength="828.08" waitingTime="62.00" waitingCount="3" stopTime="0.00" timeLoss="90.97" rerouteNo="0" devices="tripinfo_warmup_north_to_east.10" vType="DEFAULT_VEHTYPE" speedFactor="1.03" vaporized=""/>
    <tripinfo id="warmup_north_to_east.11" depart="93.00" departLane="N_SPINE_to_J03_1" departPos="5.10" departSpeed="15.57" departDelay="0.91" arrival="228.00" arrivalLane="J10_to_E_MAIN_2" arrivalPos="189.09" arrivalSpeed="16.59" duration="135.00" routeLength="828.08" waitingTime="49.00" waitingCount="5" stopTime="0.00" timeLoss="83.64" rerouteNo="0" devices="tripinfo_warmup_north_to_east.11" vType="DEFAULT_VEHTYPE" speedFactor="1.04" vaporized=""/>
    <tripinfo id="warmup_wlower_to_elower.3" depart="120.00" departLane="W_LOWER_to_J11_0" departPos="5.10" departSpeed="11.69" departDelay="0.00" arrival="228.00" arrivalLane="J14_to_E_LOWER_0" arrivalPos="298.50" arrivalSpeed="10.97" duration="108.00" routeLength="916.32" waitingTime="13.00" waitingCount="2" stopTime="0.00" timeLoss="29.02" rerouteNo="0" devices="tripinfo_warmup_wlower_to_elower.3" vType="DEFAULT_VEHTYPE" speedFactor="0.90" vaporized=""/>
    <tripinfo id="warmup_main_to_south.5" depart="101.00" departLane="W_MAIN_to_J06_0" departPos="5.10" departSpeed="13.52" departDelay="1.00" arrival="256.00" arrivalLane="J18_to_S_SPINE_0" arrivalPos="156.89" arrivalSpeed="12.42" duration="155.00" routeLength="922.29" waitingTime="70.00" waitingCount="2" stopTime="0.00" timeLoss="89.53" rerouteNo="0" devices="tripinfo_warmup_main_to_south.5" vType="DEFAULT_VEHTYPE" speedFactor="0.90" vaporized=""/>
    <tripinfo id="warmup_main_to_south.6" depart="120.00" departLane="W_MAIN_to_J06_0" departPos="5.10" departSpeed="14.28" departDelay="0.00" arrival="265.00" arrivalLane="J18_to_S_SPINE_0" arrivalPos="156.89" arrivalSpeed="14.01" duration="145.00" routeLength="922.29" waitingTime="55.00" waitingCount="3" stopTime="0.00" timeLoss="85.69" rerouteNo="0" devices="tripinfo_warmup_main_to_south.6" vType="DEFAULT_VEHTYPE" speedFactor="1.00" vaporized=""/>
    <tripinfo id="warmup_main_to_south.7" depart="140.00" departLane="W_MAIN_to_J06_0" departPos="5.10" departSpeed="15.66" departDelay="0.00" arrival="267.00" arrivalLane="J18_to_S_SPINE_1" arrivalPos="156.89" arrivalSpeed="13.67" duration="127.00" routeLength="922.29" waitingTime="39.00" waitingCount="2" stopTime="0.00" timeLoss="63.52" rerouteNo="0" devices="tripinfo_warmup_main_to_south.7" vType="DEFAULT_VEHTYPE" speedFactor="0.94" vaporized=""/>
    <tripinfo id="warmup_north_to_east.15" depart="126.00" departLane="N_SPINE_to_J03_1" departPos="5.10" departSpeed="14.54" departDelay="0.42" arrival="270.00" arrivalLane="J10_to_E_MAIN_0" arrivalPos="189.09" arrivalSpeed="15.72" duration="144.00" routeLength="828.08" waitingTime="48.00" waitingCount="3" stopTime="0.00" timeLoss="88.91" rerouteNo="0" devices="tripinfo_warmup_north_to_east.15" vType="DEFAULT_VEHTYPE" speedFactor="0.97" vaporized=""/>
    <tripinfo id="warmup_north_to_east.12" depart="101.00" departLane="N_SPINE_to_J03_1" departPos="5.10" departSpeed="13.15" departDelay="0.54" arrival="272.00" arrivalLane="J10_to_E_MAIN_0" arrivalPos="189.09" arrivalSpeed="13.44" duration="171.00" routeLength="828.08" waitingTime="82.00" waitingCount="4" stopTime="0.00" timeLoss="110.62" rerouteNo="0" devices="tripinfo_warmup_north_to_east.12" vType="DEFAULT_VEHTYPE" speedFactor="0.88" vaporized=""/>
    <tripinfo id="warmup_main_through.17" depart="81.00" departLane="W_MAIN_to_J06_2" departPos="5.10" departSpeed="15.04" departDelay="0.47" arrival="273.00" arrivalLane="J10_to_E_MAIN_1" arrivalPos="189.09" arrivalSpeed="13.97" duration="192.00" routeLength="986.27" waitingTime="105.00" waitingCount="3" stopTime="0.00" timeLoss="126.06" rerouteNo="0" devices="tripinfo_warmup_main_through.17" vType="DEFAULT_VEHTYPE" speedFactor="0.90" vaporized=""/>
    <tripinfo id="warmup_north_to_east.13" depart="109.00" departLane="N_SPINE_to_J03_1" departPos="5.10" departSpeed="12.82" departDelay="0.16" arrival="273.00" arrivalLane="J10_to_E_MAIN_2" arrivalPos="189.09" arrivalSpeed="13.97" duration="164.00" routeLength="828.08" waitingTime="67.00" waitingCount="4" stopTime="0.00" timeLoss="101.48" rerouteNo="0" devices="tripinfo_warmup_north_to_east.13" vType="DEFAULT_VEHTYPE" speedFactor="0.85" vaporized=""/>
    <tripinfo id="warmup_main_through.21" depart="100.00" departLane="W_MAIN_to_J06_0" departPos="5.10" departSpeed="16.66" departDelay="0.52" arrival="274.00" arrivalLane="J10_to_E_MAIN_0" arrivalPos="189.09" arrivalSpeed="16.25" duration="174.00" routeLength="986.27" waitingTime="94.00" waitingCount="2" stopTime="0.00" timeLoss="113.87" rerouteNo="0" devices="tripinfo_warmup_main_through.21" vType="DEFAULT_VEHTYPE" speedFactor="1.00" vaporized=""/>
    <tripinfo id="warmup_north_to_east.14" depart="118.00" departLane="N_SPINE_to_J03_1" departPos="5.10" departSpeed="16.44" departDelay="0.79" arrival="274.00" arrivalLane="J10_to_E_MAIN_2" arrivalPos="189.09" arrivalSpeed="14.72" duration="156.00" routeLength="828.08" waitingTime="60.00" waitingCount="4" stopTime="0.00" timeLoss="107.89" rerouteNo="0" devices="tripinfo_warmup_north_to_east.14" vType="DEFAULT_VEHTYPE" speedFactor="1.10" vaporized=""/>
    <tripinfo id="warmup_main_through.24" depart="114.00" departLane="W_MAIN_to_J06_1" departPos="5.10" departSpeed="16.98" departDelay="0.31" arrival="275.00" arrivalLane="J10_to_E_MAIN_1" arrivalPos="189.09" arrivalSpeed="16.64" duration="161.00" routeLength="986.27" waitingTime="76.00" waitingCount="3" stopTime="0.00" timeLoss="102.06" rerouteNo="0" devices="tripinfo_warmup_main_through.24" vType="DEFAULT_VEHTYPE" speedFactor="1.02" vaporized=""/>
    <tripinfo id="warmup_main_through.27" depart="128.00" departLane="W_MAIN_to_J06_1" departPos="5.10" departSpeed="18.08" departDelay="0.10" arrival="275.00" arrivalLane="J10_to_E_MAIN_0" arrivalPos="189.09" arrivalSpeed="16.93" duration="147.00" routeLength="986.27" waitingTime="58.00" waitingCount="3" stopTime="0.00" timeLoss="92.13" rerouteNo="0" devices="tripinfo_warmup_main_through.27" vType="DEFAULT_VEHTYPE" speedFactor="1.08" vaporized=""/>
    <tripinfo id="warmup_north_to_east.16" depart="134.00" departLane="N_SPINE_to_J03_1" departPos="5.10" departSpeed="15.24" departDelay="0.05" arrival="276.00" arrivalLane="J10_to_E_MAIN_2" arrivalPos="189.09" arrivalSpeed="16.00" duration="142.00" routeLength="828.08" waitingTime="51.00" waitingCount="3" stopTime="0.00" timeLoss="89.53" rerouteNo="0" devices="tripinfo_warmup_north_to_east.16" vType="DEFAULT_VEHTYPE" speedFactor="1.02" vaporized=""/>
    <tripinfo id="warmup_main_through.29" depart="138.00" departLane="W_MAIN_to_J06_1" departPos="5.10" departSpeed="16.48" departDelay="0.63" arrival="304.00" arrivalLane="J10_to_E_MAIN_0" arrivalPos="189.09" arrivalSpeed="16.20" duration="166.00" routeLength="986.27" waitingTime="80.00" waitingCount="3" stopTime="0.00" timeLoss="105.32" rerouteNo="0" devices="tripinfo_warmup_main_through.29" vType="DEFAULT_VEHTYPE" speedFactor="0.99" vaporized=""/>
    <tripinfo id="warmup_north_to_east.17" depart="143.00" departLane="N_SPINE_to_J03_1" departPos="5.10" departSpeed="13.60" departDelay="0.68" arrival="305.00" arrivalLane="J10_to_E_MAIN_2" arrivalPos="189.09" arrivalSpeed="14.95" duration="162.00" routeLength="828.08" waitingTime="68.00" waitingCount="3" stopTime="0.00" timeLoss="103.25" rerouteNo="0" devices="tripinfo_warmup_north_to_east.17" vType="DEFAULT_VEHTYPE" speedFactor="0.91" vaporized=""/>
    <tripinfo id="warmup_main_through.19" depart="90.00" departLane="W_MAIN_to_J06_0" departPos="5.10" departSpeed="18.23" departDelay="0.00" arrival="306.00" arrivalLane="J10_to_E_MAIN_2" arrivalPos="189.09" arrivalSpeed="18.14" duration="216.00" routeLength="986.27" waitingTime="127.00" waitingCount="3" stopTime="0.00" timeLoss="161.69" rerouteNo="0" devices="tripinfo_warmup_main_through.19" vType="DEFAULT_VEHTYPE" speedFactor="1.09" vaporized=""/>
    <tripinfo id="warmup_main_through.22" depart="105.00" departLane="W_MAIN_to_J06_1" departPos="5.10" departSpeed="14.20" departDelay="0.79" arrival="306.00" arrivalLane="J10_to_E_MAIN_0" arrivalPos="189.09" arrivalSpeed="13.68" duration="201.00" routeLength="986.27" waitingTime="100.00" waitingCount="4" stopTime="0.00" timeLoss="131.05" rerouteNo="0" devices="tripinfo_warmup_main_through.22" vType="DEFAULT_VEHTYPE" speedFactor="0.85" vaporized=""/>
    <tripinfo id="warmup_wlower_to_elower.4" depart="160.00" departLane="W_LOWER_to_J11_0" departPos="5.10" departSpeed="12.42" departDelay="0.00" arrival="306.00" arrivalLane="J14_to_E_LOWER_0" arrivalPos="298.50" arrivalSpeed="11.38" duration="146.00" routeLength="916.32" waitingTime="53.00" waitingCount="3" stopTime="0.00" timeLoss="72.14" rerouteNo="0" devices="tripinfo_warmup_wlower_to_elower.4" vType="DEFAULT_VEHTYPE" speedFactor="0.96" vaporized=""/>
    <tripinfo id="warmup_main_through.30" depart="143.00" departLane="W_MAIN_to_J06_2" departPos="5.10" departSpeed="14.73" departDelay="0.89" arrival="307.00" arrivalLane="J10_to_E_MAIN_1" arrivalPos="189.09" arrivalSpeed="13.58" duration="164.00" routeLength="986.27" waitingTime="71.00" waitingCount="3" stopTime="0.00" timeLoss="96.21" rerouteNo="0" devices="tripinfo_warmup_main_through.30" vType="DEFAULT_VEHTYPE" speedFactor="0.88" vaporized=""/>
    <tripinfo id="warmup_main_through.20" depart="95.00" departLane="W_MAIN_to_J06_0" departPos="5.10" departSpeed="17.42" departDelay="0.26" arrival="308.00" arrivalLane="J10_to_E_MAIN_2" arrivalPos="189.09" arrivalSpeed="16.64" duration="213.00" routeLength="986.27" waitingTime="125.00" waitingCount="3" stopTime="0.00" timeLoss="155.93" rerouteNo="0" devices="tripinfo_warmup_main_through.20" vType="DEFAULT_VEHTYPE" speedFactor="1.04" vaporized=""/>